[Molden Format]
[Atoms] Angs
C     1    6         0.0000000000        0.0000000000        0.0000000000
[GTO]
   1 0
 s   10  1.00
  0.8236000000D+04  0.5309998617D-03
  0.1235000000D+04  0.4107998930D-02
  0.2808000000D+03  0.2108699451D-01
  0.7927000000D+02  0.8185297868D-01
  0.2559000000D+02  0.2348169388D+00
  0.8997000000D+01  0.4344008869D+00
  0.3319000000D+01  0.3461289099D+00
  0.9059000000D+00  0.3937798974D-01
  0.3643000000D+00 -0.8982997660D-02
  0.1285000000D+00  0.2384999379D-02
 s   10  1.00
  0.8236000000D+04 -0.1129999414D-03
  0.1235000000D+04 -0.8779995449D-03
  0.2808000000D+03 -0.4539997647D-02
  0.7927000000D+02 -0.1813299060D-01
  0.2559000000D+02 -0.5575997110D-01
  0.8997000000D+01 -0.1268949342D+00
  0.3319000000D+01 -0.1703519117D+00
  0.9059000000D+00  0.1403819272D+00
  0.3643000000D+00  0.5986836897D+00
  0.1285000000D+00  0.3953887950D+00
 s   10  1.00
  0.8236000000D+04  0.0000000000D+00
  0.1235000000D+04  0.0000000000D+00
  0.2808000000D+03  0.0000000000D+00
  0.7927000000D+02  0.0000000000D+00
  0.2559000000D+02  0.0000000000D+00
  0.8997000000D+01  0.0000000000D+00
  0.3319000000D+01  0.0000000000D+00
  0.9059000000D+00  0.1000000000D+01
  0.3643000000D+00  0.0000000000D+00
  0.1285000000D+00  0.0000000000D+00
 s   10  1.00
  0.8236000000D+04  0.0000000000D+00
  0.1235000000D+04  0.0000000000D+00
  0.2808000000D+03  0.0000000000D+00
  0.7927000000D+02  0.0000000000D+00
  0.2559000000D+02  0.0000000000D+00
  0.8997000000D+01  0.0000000000D+00
  0.3319000000D+01  0.0000000000D+00
  0.9059000000D+00  0.0000000000D+00
  0.3643000000D+00  0.0000000000D+00
  0.1285000000D+00  0.1000000000D+01
 p    5  1.00
  0.1871000000D+02  0.1403099838D-01
  0.4133000000D+01  0.8686598995D-01
  0.1200000000D+01  0.2902159664D+00
  0.3827000000D+00  0.5010079421D+00
  0.1209000000D+00  0.3434059603D+00
 p    5  1.00
  0.1871000000D+02  0.0000000000D+00
  0.4133000000D+01  0.0000000000D+00
  0.1200000000D+01  0.0000000000D+00
  0.3827000000D+00  0.1000000000D+01
  0.1209000000D+00  0.0000000000D+00
 p    5  1.00
  0.1871000000D+02  0.0000000000D+00
  0.4133000000D+01  0.0000000000D+00
  0.1200000000D+01  0.0000000000D+00
  0.3827000000D+00  0.0000000000D+00
  0.1209000000D+00  0.1000000000D+01
 d    1  1.00
  0.1097000000D+01  0.1000000000D+01
 d    1  1.00
  0.3180000000D+00  0.1000000000D+01
 f    1  1.00
  0.7610000000D+00  0.1000000000D+01


[MO]
 Sym=      1.1
 Ene=     -11.3601
 Spin= Alpha
 Occup=    2.000000
1 1.00016454879686
2 0.000036118949355
3 -0.000301912804874
4 -0.000010163251979
5 0.0
6 0.0
7 0.0
8 0.0
9 0.0
10 0.0
11 0.0
12 0.0
13 0.0
14 0.000502821503131
15 -0.000251410751443
16 -0.000251410751688
17 0.0
18 0.0
19 0.0
20 0.000424271157570
21 -0.000212135578357
22 -0.000212135579213
23 0.0
24 0.0
25 0.0
26 0.0
27 0.0
28 0.0
29 0.0
30 0.0
31 0.0
32 0.0
33 0.0
34 0.0
35 0.0
 Sym=      2.1
 Ene=      -0.7225
 Spin= Alpha
 Occup=    2.000000
1 0.000715219629512
2 1.01036015543517
3 0.003102820351950
4 -0.013803569065178
5 0.0
6 0.0
7 0.0
8 0.0
9 0.0
10 0.0
11 0.0
12 0.0
13 0.0
14 0.000826993334196
15 -0.000413496665847
16 -0.000413496668349
17 0.0
18 0.0
19 0.0
20 0.007975390037195
21 -0.003987695027280
22 -0.003987695009915
23 0.0
24 0.0
25 0.0
26 0.0
27 0.0
28 0.0
29 0.0
30 0.0
31 0.0
32 0.0
33 0.0
34 0.0
35 0.0
 Sym=      1.2
 Ene=      -0.3557
 Spin= Alpha
 Occup=    2.000000
1 0.0
2 0.0
3 0.0
4 0.0
5 0.97640577548621
6 0.0
7 0.0
8 -0.023920623670798
9 0.0
10 0.0
11 0.059719437424888
12 0.0
13 0.0
14 0.0
15 0.0
16 0.0
17 0.0
18 0.0
19 0.0
20 0.0
21 0.0
22 0.0
23 0.0
24 0.0
25 0.0
26 -0.011942739524802
27 0.0
28 0.0
29 0.008011433224414
30 0.0
31 0.0
32 0.008011433224604
33 0.0
34 0.0
35 0.0
 Sym=      1.5
 Ene=       0.0401
 Spin= Alpha
 Occup=    0.000000
1 0.0
2 0.0
3 0.0
4 0.0
5 0.0
6 0.0
7 0.72715168077971
8 0.0
9 0.0
10 -0.056140564645808
11 0.0
12 0.0
13 0.38546984144641
14 0.0
15 0.0
16 0.0
17 0.0
18 0.0
19 0.0
20 0.0
21 0.0
22 0.0
23 0.0
24 0.0
25 0.0
26 0.0
27 0.0
28 0.005155675288504
29 0.0
30 0.0
31 -0.009222752344038
32 0.0
33 0.0
34 0.002305688095032
35 0.0
 Sym=      1.3
 Ene=       0.0401
 Spin= Alpha
 Occup=    0.000000
1 0.0
2 0.0
3 0.0
4 0.0
5 0.0
6 0.72715168077829
7 0.0
8 0.0
9 -0.056140564645369
10 0.0
11 0.0
12 0.38546984144750
13 0.0
14 0.0
15 0.0
16 0.0
17 0.0
18 0.0
19 0.0
20 0.0
21 0.0
22 0.0
23 0.0
24 0.0
25 0.0
26 0.0
27 0.005155675298153
28 0.0
29 0.0
30 -0.009222752344468
31 0.0
32 0.0
33 0.002305688082515
34 0.0
35 0.0
 Sym=      2.2
 Ene=       0.4606
 Spin= Alpha
 Occup=    0.000000
1 0.0
2 0.0
3 0.0
4 0.0
5 -0.64953447063514
6 0.0
7 0.0
8 -0.52669193994418
9 0.0
10 0.0
11 1.45852172125049
12 0.0
13 0.0
14 0.0
15 0.0
16 0.0
17 0.0
18 0.0
19 0.0
20 0.0
21 0.0
22 0.0
23 0.0
24 0.0
25 0.0
26 0.006689728181320
27 0.0
28 0.0
29 -0.004487606081387
30 0.0
31 0.0
32 -0.004487606097269
33 0.0
34 0.0
35 0.0
 Sym=      2.3
 Ene=       0.4898
 Spin= Alpha
 Occup=    0.000000
1 0.0
2 0.0
3 0.0
4 0.0
5 0.0
6 -0.75261618117360
7 0.0
8 0.0
9 -0.59165836659483
10 0.0
11 0.0
12 1.39616593571793
13 0.0
14 0.0
15 0.0
16 0.0
17 0.0
18 0.0
19 0.0
20 0.0
21 0.0
22 0.0
23 0.0
24 0.0
25 0.0
26 0.0
27 -0.004621016100309
28 0.0
29 0.0
30 0.008266324899613
31 0.0
32 0.0
33 -0.002066581224366
34 0.0
35 0.0
 Sym=      2.5
 Ene=       0.4898
 Spin= Alpha
 Occup=    0.000000
1 0.0
2 0.0
3 0.0
4 0.0
5 0.0
6 0.0
7 -0.75261618117165
8 0.0
9 0.0
10 -0.59165836659609
11 0.0
12 0.0
13 1.39616593571788
14 0.0
15 0.0
16 0.0
17 0.0
18 0.0
19 0.0
20 0.0
21 0.0
22 0.0
23 0.0
24 0.0
25 0.0
26 0.0
27 0.0
28 -0.004621016116624
29 0.0
30 0.0
31 0.008266324906832
32 0.0
33 0.0
34 -0.002066581209697
35 0.0
 Sym=      3.1
 Ene=       0.5141
 Spin= Alpha
 Occup=    0.000000
1 -0.50305840734688
2 -2.50884570114582
3 0.13211254253605
4 2.68023502738513
5 0.0
6 0.0
7 0.0
8 0.0
9 0.0
10 0.0
11 0.0
12 0.0
13 0.0
14 0.013400637683315
15 -0.006700318817377
16 -0.006700318865938
17 0.0
18 0.0
19 0.0
20 -0.043673819419768
21 0.021836909709069
22 0.021836909710699
23 0.0
24 0.0
25 0.0
26 0.0
27 0.0
28 0.0
29 0.0
30 0.0
31 0.0
32 0.0
33 0.0
34 0.0
35 0.0
 Sym=      1.7
 Ene=       0.8516
 Spin= Alpha
 Occup=    0.000000
1 0.0
2 0.0
3 0.0
4 0.0
5 0.0
6 0.0
7 0.0
8 0.0
9 0.0
10 0.0
11 0.0
12 0.0
13 0.0
14 0.0
15 0.0
16 0.0
17 0.0
18 0.0
19 -0.037838149767933
20 0.0
21 0.0
22 0.0
23 0.0
24 0.0
25 1.01960019488807
26 0.0
27 0.0
28 0.0
29 0.0
30 0.0
31 0.0
32 0.0
33 0.0
34 0.0
35 0.0
 Sym=      4.1
 Ene=       0.8516
 Spin= Alpha
 Occup=    0.000000
1 -0.000000000001230
2 -0.000000000027264
3 -0.000000000003500
4 0.000000000023251
5 0.0
6 0.0
7 0.0
8 0.0
9 0.0
10 0.0
11 0.0
12 0.0
13 0.0
14 -0.000000000009672
15 0.032768798947303
16 -0.032768798937631
17 0.0
18 0.0
19 0.0
20 -0.000000000073243
21 -0.88299967044568
22 0.88299967051893
23 0.0
24 0.0
25 0.0
26 0.0
27 0.0
28 0.0
29 0.0
30 0.0
31 0.0
32 0.0
33 0.0
34 0.0
35 0.0
 Sym=      1.4
 Ene=       0.8675
 Spin= Alpha
 Occup=    0.000000
1 0.0
2 0.0
3 0.0
4 0.0
5 0.0
6 0.0
7 0.0
8 0.0
9 0.0
10 0.0
11 0.0
12 0.0
13 0.0
14 0.0
15 0.0
16 0.0
17 -0.031661952878349
18 0.0
19 0.0
20 0.0
21 0.0
22 0.0
23 1.01647111163276
24 0.0
25 0.0
26 0.0
27 0.0
28 0.0
29 0.0
30 0.0
31 0.0
32 0.0
33 0.0
34 0.0
35 0.0
 Sym=      1.6
 Ene=       0.8675
 Spin= Alpha
 Occup=    0.000000
1 0.0
2 0.0
3 0.0
4 0.0
5 0.0
6 0.0
7 0.0
8 0.0
9 0.0
10 0.0
11 0.0
12 0.0
13 0.0
14 0.0
15 0.0
16 0.0
17 0.0
18 -0.031661952878709
19 0.0
20 0.0
21 0.0
22 0.0
23 0.0
24 1.01647111163295
25 0.0
26 0.0
27 0.0
28 0.0
29 0.0
30 0.0
31 0.0
32 0.0
33 0.0
34 0.0
35 0.0
 Sym=      5.1
 Ene=       0.8747
 Spin= Alpha
 Occup=    0.000000
1 -0.030553407666143
2 -0.12639288227825
3 0.020985946040395
4 0.11502560968412
5 0.0
6 0.0
7 0.0
8 0.0
9 0.0
10 0.0
11 0.0
12 0.0
13 0.0
14 -0.029711303994020
15 0.014855652011737
16 0.014855651982282
17 0.0
18 0.0
19 0.0
20 1.01475086641163
21 -0.50737543328052
22 -0.50737543313111
23 0.0
24 0.0
25 0.0
26 0.0
27 0.0
28 0.0
29 0.0
30 0.0
31 0.0
32 0.0
33 0.0
34 0.0
35 0.0
 Sym=      3.5
 Ene=       2.2865
 Spin= Alpha
 Occup=    0.000000
1 0.0
2 0.0
3 0.0
4 0.0
5 0.0
6 0.0
7 -3.60767242024454
8 0.0
9 0.0
10 3.25071389303654
11 0.0
12 0.0
13 0.64311523397612
14 0.0
15 0.0
16 0.0
17 0.0
18 0.0
19 0.0
20 0.0
21 0.0
22 0.0
23 0.0
24 0.0
25 0.0
26 0.0
27 0.0
28 0.014498534508908
29 0.0
30 0.0
31 -0.025935766789448
32 0.0
33 0.0
34 0.006483941547820
35 0.0
 Sym=      3.3
 Ene=       2.2865
 Spin= Alpha
 Occup=    0.000000
1 0.0
2 0.0
3 0.0
4 0.0
5 0.0
6 -3.60767242024520
7 0.0
8 0.0
9 3.25071389303784
10 0.0
11 0.0
12 0.64311523397535
13 0.0
14 0.0
15 0.0
16 0.0
17 0.0
18 0.0
19 0.0
20 0.0
21 0.0
22 0.0
23 0.0
24 0.0
25 0.0
26 0.0
27 0.014498534285104
28 0.0
29 0.0
30 -0.025935766776431
31 0.0
32 0.0
33 0.006483941835068
34 0.0
35 0.0
 Sym=      3.2
 Ene=       2.3031
 Spin= Alpha
 Occup=    0.000000
1 0.0
2 0.0
3 0.0
4 0.0
5 -3.56819281866450
6 0.0
7 0.0
8 3.26164934268372
9 0.0
10 0.0
11 0.61691058063931
12 0.0
13 0.0
14 0.0
15 0.0
16 0.0
17 0.0
18 0.0
19 0.0
20 0.0
21 0.0
22 0.0
23 0.0
24 0.0
25 0.0
26 -0.030521960187602
27 0.0
28 0.0
29 0.020474753283922
30 0.0
31 0.0
32 0.020474753387690
33 0.0
34 0.0
35 0.0
 Sym=      4.3
 Ene=       2.9109
 Spin= Alpha
 Occup=    0.000000
1 0.0
2 0.0
3 0.0
4 0.0
5 0.0
6 0.000000000486478
7 0.0
8 0.0
9 -0.000000000436495
10 0.0
11 0.0
12 -0.000000000085318
13 0.0
14 0.0
15 0.0
16 0.0
17 0.0
18 0.0
19 0.0
20 0.0
21 0.0
22 0.0
23 0.0
24 0.0
25 0.0
26 0.0
27 -0.79056941500931
28 0.0
29 0.0
30 -0.000000000058639
31 0.0
32 0.0
33 1.06066017179448
34 0.0
35 0.0
 Sym=      4.5
 Ene=       2.9109
 Spin= Alpha
 Occup=    0.000000
1 0.0
2 0.0
3 0.0
4 0.0
5 0.0
6 0.0
7 0.000000000501569
8 0.0
9 0.0
10 -0.000000000466975
11 0.0
12 0.0
13 -0.000000000064873
14 0.0
15 0.0
16 0.0
17 0.0
18 0.0
19 0.0
20 0.0
21 0.0
22 0.0
23 0.0
24 0.0
25 0.0
26 0.0
27 0.0
28 0.79056941503014
29 0.0
30 0.0
31 0.000000000021388
32 0.0
33 0.0
34 -1.06066017178517
35 0.0
 Sym=      1.8
 Ene=       2.9559
 Spin= Alpha
 Occup=    0.000000
1 0.0
2 0.0
3 0.0
4 0.0
5 0.0
6 0.0
7 0.0
8 0.0
9 0.0
10 0.0
11 0.0
12 0.0
13 0.0
14 0.0
15 0.0
16 0.0
17 0.0
18 0.0
19 0.0
20 0.0
21 0.0
22 0.0
23 0.0
24 0.0
25 0.0
26 0.0
27 0.0
28 0.0
29 0.0
30 0.0
31 0.0
32 0.0
33 0.0
34 0.0
35 1.00000000000000
 Sym=      4.2
 Ene=       2.9559
 Spin= Alpha
 Occup=    0.000000
1 0.0
2 0.0
3 0.0
4 0.0
5 0.000000000186686
6 0.0
7 0.0
8 -0.000000000176974
9 0.0
10 0.0
11 -0.000000000021377
12 0.0
13 0.0
14 0.0
15 0.0
16 0.0
17 0.0
18 0.0
19 0.0
20 0.0
21 0.0
22 0.0
23 0.0
24 0.0
25 0.0
26 0.000000000227918
27 0.0
28 0.0
29 -0.86602540393733
30 0.0
31 0.0
32 0.86602540363155
33 0.0
34 0.0
35 0.0
 Sym=      5.5
 Ene=       2.9838
 Spin= Alpha
 Occup=    0.000000
1 0.0
2 0.0
3 0.0
4 0.0
5 0.0
6 0.0
7 -0.073639299218542
8 0.0
9 0.0
10 0.080983853472245
11 0.0
12 0.0
13 0.007938884425065
14 0.0
15 0.0
16 0.0
17 0.0
18 0.0
19 0.0
20 0.0
21 0.0
22 0.0
23 0.0
24 0.0
25 0.0
26 0.0
27 0.0
28 -0.61216162713647
29 0.0
30 0.0
31 1.09506800917239
32 0.0
33 0.0
34 -0.27376700227598
35 0.0
 Sym=      5.3
 Ene=       2.9838
 Spin= Alpha
 Occup=    0.000000
1 0.0
2 0.0
3 0.0
4 0.0
5 0.0
6 -0.073639299180322
7 0.0
8 0.0
9 0.080983853429680
10 0.0
11 0.0
12 0.007938884426764
13 0.0
14 0.0
15 0.0
16 0.0
17 0.0
18 0.0
19 0.0
20 0.0
21 0.0
22 0.0
23 0.0
24 0.0
25 0.0
26 0.0
27 -0.61216162716870
28 0.0
29 0.0
30 1.09506800917275
31 0.0
32 0.0
33 -0.27376700223309
34 0.0
35 0.0
 Sym=      5.2
 Ene=       2.9933
 Spin= Alpha
 Occup=    0.000000
1 0.0
2 0.0
3 0.0
4 0.0
5 -0.092954091301006
6 0.0
7 0.0
8 0.10284723719082
9 0.0
10 0.0
11 0.009790899407767
12 0.0
13 0.0
14 0.0
15 0.0
16 0.0
17 0.0
18 0.0
19 0.0
20 0.0
21 0.0
22 0.0
23 0.0
24 0.0
25 0.0
26 0.99944035762811
27 0.0
28 0.0
29 -0.67044497353809
30 0.0
31 0.0
32 -0.67044497392980
33 0.0
34 0.0
35 0.0
 Sym=      2.7
 Ene=       3.2367
 Spin= Alpha
 Occup=    0.000000
1 0.0
2 0.0
3 0.0
4 0.0
5 0.0
6 0.0
7 0.0
8 0.0
9 0.0
10 0.0
11 0.0
12 0.0
13 0.0
14 0.0
15 0.0
16 0.0
17 0.0
18 0.0
19 1.18001749000850
20 0.0
21 0.0
22 0.0
23 0.0
24 0.0
25 -0.59522134108920
26 0.0
27 0.0
28 0.0
29 0.0
30 0.0
31 0.0
32 0.0
33 0.0
34 0.0
35 0.0
 Sym=      6.1
 Ene=       3.2367
 Spin= Alpha
 Occup=    0.000000
1 0.000000000332110
2 0.000000000714731
3 -0.000000000486757
4 -0.000000000427528
5 0.0
6 0.0
7 0.0
8 0.0
9 0.0
10 0.0
11 0.0
12 0.0
13 0.0
14 0.000000000174151
15 -1.02192512334403
16 1.02192512316988
17 0.0
18 0.0
19 0.0
20 -0.000000000077026
21 0.51547680228669
22 -0.51547680220966
23 0.0
24 0.0
25 0.0
26 0.0
27 0.0
28 0.0
29 0.0
30 0.0
31 0.0
32 0.0
33 0.0
34 0.0
35 0.0
 Sym=      2.6
 Ene=       3.2775
 Spin= Alpha
 Occup=    0.000000
1 0.0
2 0.0
3 0.0
4 0.0
5 0.0
6 0.0
7 0.0
8 0.0
9 0.0
10 0.0
11 0.0
12 0.0
13 0.0
14 0.0
15 0.0
16 0.0
17 0.0
18 1.18019935733067
19 0.0
20 0.0
21 0.0
22 0.0
23 0.0
24 -0.60054931647576
25 0.0
26 0.0
27 0.0
28 0.0
29 0.0
30 0.0
31 0.0
32 0.0
33 0.0
34 0.0
35 0.0
 Sym=      2.4
 Ene=       3.2775
 Spin= Alpha
 Occup=    0.000000
1 0.0
2 0.0
3 0.0
4 0.0
5 0.0
6 0.0
7 0.0
8 0.0
9 0.0
10 0.0
11 0.0
12 0.0
13 0.0
14 0.0
15 0.0
16 0.0
17 1.18019935733068
18 0.0
19 0.0
20 0.0
21 0.0
22 0.0
23 -0.60054931647607
24 0.0
25 0.0
26 0.0
27 0.0
28 0.0
29 0.0
30 0.0
31 0.0
32 0.0
33 0.0
34 0.0
35 0.0
 Sym=      7.1
 Ene=       3.2923
 Spin= Alpha
 Occup=    0.000000
1 0.016035821729957
2 0.050473155024337
3 -0.017392488606619
4 -0.043932222368916
5 0.0
6 0.0
7 0.0
8 0.0
9 0.0
10 0.0
11 0.0
12 0.0
13 0.0
14 1.18015865224734
15 -0.59007932597174
16 -0.59007932627560
17 0.0
18 0.0
19 0.0
20 -0.60176314784043
21 0.30088157383466
22 0.30088157400576
23 0.0
24 0.0
25 0.0
26 0.0
27 0.0
28 0.0
29 0.0
30 0.0
31 0.0
32 0.0
33 0.0
34 0.0
35 0.0
 Sym=      8.1
 Ene=       4.1319
 Spin= Alpha
 Occup=    0.000000
1 -2.28872348442516
2 -5.14100864516749
3 3.26211058318790
4 3.25916542280897
5 0.0
6 0.0
7 0.0
8 0.0
9 0.0
10 0.0
11 0.0
12 0.0
13 0.0
14 0.005939899559519
15 -0.002969949932480
16 -0.002969949627038
17 0.0
18 0.0
19 0.0
20 -0.007975334906658
21 0.003987667529365
22 0.003987667377294
23 0.0
24 0.0
25 0.0
26 0.0
27 0.0
28 0.0
29 0.0
30 0.0
31 0.0
32 0.0
33 0.0
34 0.0
35 0.0
