[Molden Format]
[Atoms] Angs
C     1    6        -0.0000000000        0.0000000000        0.0000970175
H     2    1        -0.0000000000        0.0000000000        1.0870970175
H     3    1         1.0246513008        0.0000000000       -0.3627510385
H     4    1        -0.5123256504       -0.8873740565       -0.3627510385
H     5    1        -0.5123256504        0.8873740565       -0.3627510385
[GTO]
   1 0
 s   10  1.00
  0.8236000000D+04  0.5309998617D-03
  0.1235000000D+04  0.4107998930D-02
  0.2808000000D+03  0.2108699451D-01
  0.7927000000D+02  0.8185297868D-01
  0.2559000000D+02  0.2348169388D+00
  0.8997000000D+01  0.4344008869D+00
  0.3319000000D+01  0.3461289099D+00
  0.9059000000D+00  0.3937798974D-01
  0.3643000000D+00 -0.8982997660D-02
  0.1285000000D+00  0.2384999379D-02
 s   10  1.00
  0.8236000000D+04 -0.1129999414D-03
  0.1235000000D+04 -0.8779995449D-03
  0.2808000000D+03 -0.4539997647D-02
  0.7927000000D+02 -0.1813299060D-01
  0.2559000000D+02 -0.5575997110D-01
  0.8997000000D+01 -0.1268949342D+00
  0.3319000000D+01 -0.1703519117D+00
  0.9059000000D+00  0.1403819272D+00
  0.3643000000D+00  0.5986836897D+00
  0.1285000000D+00  0.3953887950D+00
 s   10  1.00
  0.8236000000D+04  0.0000000000D+00
  0.1235000000D+04  0.0000000000D+00
  0.2808000000D+03  0.0000000000D+00
  0.7927000000D+02  0.0000000000D+00
  0.2559000000D+02  0.0000000000D+00
  0.8997000000D+01  0.0000000000D+00
  0.3319000000D+01  0.0000000000D+00
  0.9059000000D+00  0.1000000000D+01
  0.3643000000D+00  0.0000000000D+00
  0.1285000000D+00  0.0000000000D+00
 s   10  1.00
  0.8236000000D+04  0.0000000000D+00
  0.1235000000D+04  0.0000000000D+00
  0.2808000000D+03  0.0000000000D+00
  0.7927000000D+02  0.0000000000D+00
  0.2559000000D+02  0.0000000000D+00
  0.8997000000D+01  0.0000000000D+00
  0.3319000000D+01  0.0000000000D+00
  0.9059000000D+00  0.0000000000D+00
  0.3643000000D+00  0.0000000000D+00
  0.1285000000D+00  0.1000000000D+01
 p    5  1.00
  0.1871000000D+02  0.1403099838D-01
  0.4133000000D+01  0.8686598995D-01
  0.1200000000D+01  0.2902159664D+00
  0.3827000000D+00  0.5010079421D+00
  0.1209000000D+00  0.3434059603D+00
 p    5  1.00
  0.1871000000D+02  0.0000000000D+00
  0.4133000000D+01  0.0000000000D+00
  0.1200000000D+01  0.0000000000D+00
  0.3827000000D+00  0.1000000000D+01
  0.1209000000D+00  0.0000000000D+00
 p    5  1.00
  0.1871000000D+02  0.0000000000D+00
  0.4133000000D+01  0.0000000000D+00
  0.1200000000D+01  0.0000000000D+00
  0.3827000000D+00  0.0000000000D+00
  0.1209000000D+00  0.1000000000D+01
 d    1  1.00
  0.1097000000D+01  0.1000000000D+01
 d    1  1.00
  0.3180000000D+00  0.1000000000D+01
 f    1  1.00
  0.7610000000D+00  0.1000000000D+01
  
   2 0
 s    5  1.00
  0.3387000000D+02  0.6067999217D-02
  0.5095000000D+01  0.4530799416D-01
  0.1159000000D+01  0.2028219738D+00
  0.3258000000D+00  0.5039029350D+00
  0.1027000000D+00  0.3834209505D+00
 s    5  1.00
  0.3387000000D+02  0.0000000000D+00
  0.5095000000D+01  0.0000000000D+00
  0.1159000000D+01  0.0000000000D+00
  0.3258000000D+00  0.1000000000D+01
  0.1027000000D+00  0.0000000000D+00
 s    5  1.00
  0.3387000000D+02  0.0000000000D+00
  0.5095000000D+01  0.0000000000D+00
  0.1159000000D+01  0.0000000000D+00
  0.3258000000D+00  0.0000000000D+00
  0.1027000000D+00  0.1000000000D+01
 p    1  1.00
  0.1407000000D+01  0.1000000000D+01
 p    1  1.00
  0.3880000000D+00  0.1000000000D+01
 d    1  1.00
  0.1057000000D+01  0.1000000000D+01
  
   3 0
 s    5  1.00
  0.3387000000D+02  0.6067999217D-02
  0.5095000000D+01  0.4530799416D-01
  0.1159000000D+01  0.2028219738D+00
  0.3258000000D+00  0.5039029350D+00
  0.1027000000D+00  0.3834209505D+00
 s    5  1.00
  0.3387000000D+02  0.0000000000D+00
  0.5095000000D+01  0.0000000000D+00
  0.1159000000D+01  0.0000000000D+00
  0.3258000000D+00  0.1000000000D+01
  0.1027000000D+00  0.0000000000D+00
 s    5  1.00
  0.3387000000D+02  0.0000000000D+00
  0.5095000000D+01  0.0000000000D+00
  0.1159000000D+01  0.0000000000D+00
  0.3258000000D+00  0.0000000000D+00
  0.1027000000D+00  0.1000000000D+01
 p    1  1.00
  0.1407000000D+01  0.1000000000D+01
 p    1  1.00
  0.3880000000D+00  0.1000000000D+01
 d    1  1.00
  0.1057000000D+01  0.1000000000D+01
  
   4 0
 s    5  1.00
  0.3387000000D+02  0.6067999217D-02
  0.5095000000D+01  0.4530799416D-01
  0.1159000000D+01  0.2028219738D+00
  0.3258000000D+00  0.5039029350D+00
  0.1027000000D+00  0.3834209505D+00
 s    5  1.00
  0.3387000000D+02  0.0000000000D+00
  0.5095000000D+01  0.0000000000D+00
  0.1159000000D+01  0.0000000000D+00
  0.3258000000D+00  0.1000000000D+01
  0.1027000000D+00  0.0000000000D+00
 s    5  1.00
  0.3387000000D+02  0.0000000000D+00
  0.5095000000D+01  0.0000000000D+00
  0.1159000000D+01  0.0000000000D+00
  0.3258000000D+00  0.0000000000D+00
  0.1027000000D+00  0.1000000000D+01
 p    1  1.00
  0.1407000000D+01  0.1000000000D+01
 p    1  1.00
  0.3880000000D+00  0.1000000000D+01
 d    1  1.00
  0.1057000000D+01  0.1000000000D+01
  
   5 0
 s    5  1.00
  0.3387000000D+02  0.6067999217D-02
  0.5095000000D+01  0.4530799416D-01
  0.1159000000D+01  0.2028219738D+00
  0.3258000000D+00  0.5039029350D+00
  0.1027000000D+00  0.3834209505D+00
 s    5  1.00
  0.3387000000D+02  0.0000000000D+00
  0.5095000000D+01  0.0000000000D+00
  0.1159000000D+01  0.0000000000D+00
  0.3258000000D+00  0.1000000000D+01
  0.1027000000D+00  0.0000000000D+00
 s    5  1.00
  0.3387000000D+02  0.0000000000D+00
  0.5095000000D+01  0.0000000000D+00
  0.1159000000D+01  0.0000000000D+00
  0.3258000000D+00  0.0000000000D+00
  0.1027000000D+00  0.1000000000D+01
 p    1  1.00
  0.1407000000D+01  0.1000000000D+01
 p    1  1.00
  0.3880000000D+00  0.1000000000D+01
 d    1  1.00
  0.1057000000D+01  0.1000000000D+01


[MO]
 Sym=      1.1
 Ene=     -11.2058
 Spin= Alpha
 Occup=    2.000000
1 0.99962631725871
2 0.003310923174020
3 0.001558363570117
4 0.002334618652619
5 0.000000000017828
6 0.0
7 -0.000000396406368
8 -0.000000000069783
9 0.0
10 -0.000001436491038
11 -0.000000000085248
12 0.0
13 -0.000001296588709
14 -0.000000289695626
15 -0.000000289690545
16 0.000000579386170
17 0.0
18 0.000000000000871
19 0.0
20 0.000000306227630
21 0.000000306438977
22 -0.000000612666607
23 0.0
24 0.000000000007984
25 0.0
26 0.000488147514256
27 0.0
28 0.000690898794087
29 -0.000654918642532
30 0.0
31 -0.000463468981858
32 0.000000000027577
33 0.0
34 -0.000463469019633
35 0.0
36 0.000568442194595
37 -0.000927782932320
38 -0.000966059648879
39 -0.000000000004354
40 0.0
41 0.000338130443674
42 0.000000000001023
43 0.0
44 0.000305891963233
45 0.000134400962993
46 0.000134400957223
47 -0.000268801920216
48 0.0
49 0.000000000009450
50 0.0
51 0.000569366536125
52 -0.000930322019668
53 -0.000967025005698
54 0.000318553589176
55 0.0
56 -0.000112891547778
57 0.000289025215409
58 0.0
59 -0.000102437162926
60 -0.000223721594364
61 0.000134233166597
62 0.000089488427767
63 0.0
64 0.000146606262446
65 0.0
66 0.000569366392999
67 -0.000930322111346
68 -0.000967025052472
69 -0.000159276794162
70 -0.000275875517625
71 -0.000112891560811
72 -0.000144512668748
73 -0.000250303195740
74 -0.000102437222709
75 0.000044744466732
76 -0.000134232886519
77 0.000089488419787
78 -0.000178977391455
79 -0.000073303141374
80 -0.000126964762081
81 0.000569366392999
82 -0.000930322111346
83 -0.000967025052472
84 -0.000159276794162
85 0.000275875517625
86 -0.000112891560811
87 -0.000144512668748
88 0.000250303195740
89 -0.000102437222709
90 0.000044744466732
91 -0.000134232886519
92 0.000089488419787
93 0.000178977391455
94 -0.000073303141374
95 0.000126964762081
 Sym=      2.1
 Ene=      -0.9437
 Spin= Alpha
 Occup=    2.000000
1 -0.015491988914491
2 0.77749267580522
3 -0.019552832372780
4 -0.11114982527101
5 0.000000000268911
6 0.0
7 -0.000155395745424
8 -0.000000001385352
9 0.0
10 -0.000001457545994
11 -0.000000000731374
12 0.0
13 0.000038817163023
14 -0.000004290015254
15 -0.000004289896425
16 0.000008579911678
17 0.0
18 0.000000000049115
19 0.0
20 -0.000005814615497
21 -0.000005814332093
22 0.000011628947590
23 0.0
24 0.000000000653445
25 0.0
26 0.004990605040386
27 0.0
28 0.007064714043818
29 -0.006695599334635
30 0.0
31 -0.004739154195164
32 0.000000000063141
33 0.0
34 -0.004739154310980
35 0.0
36 0.34528940361878
37 -0.084320937265825
38 -0.12024901511168
39 0.000000000002105
40 0.0
41 -0.007875422140761
42 -0.000000000174364
43 0.0
44 -0.002130858621478
45 -0.000521271368629
46 -0.000521271336958
47 0.001042542705587
48 0.0
49 0.000000000048444
50 0.0
51 0.34539378931875
52 -0.084351722097897
53 -0.12028197017391
54 -0.007426993773147
55 0.0
56 0.002628581060274
57 -0.002005868612378
58 0.0
59 0.000712441440856
60 0.000869737438677
61 -0.000521885607766
62 -0.000347851830911
63 0.0
64 -0.000568494443900
65 0.0
66 0.34539378900238
67 -0.084351723840896
68 -0.12028197081319
69 0.003713496834644
70 0.006431965240295
71 0.002628581015477
72 0.001002934006023
73 0.001737132129219
74 0.000712441286064
75 -0.000173979805572
76 0.000521831543434
77 -0.000347851737862
78 0.000695811448080
79 0.000284247236224
80 0.000492330579633
81 0.34539378900238
82 -0.084351723840896
83 -0.12028197081319
84 0.003713496834644
85 -0.006431965240295
86 0.002628581015477
87 0.001002934006023
88 -0.001737132129219
89 0.000712441286064
90 -0.000173979805572
91 0.000521831543434
92 -0.000347851737862
93 -0.000695811448080
94 0.000284247236224
95 -0.000492330579633
 Sym=      3.1
 Ene=      -0.5454
 Spin= Alpha
 Occup=    2.000000
1 0.000000920124373
2 0.000245012588653
3 -0.000003019716649
4 -0.000004248315747
5 -0.000000128939515
6 0.0
7 0.66147484997060
8 0.000000007160932
9 0.0
10 -0.045977328335701
11 0.000000015674464
12 0.0
13 -0.089554639900408
14 -0.008944872252095
15 -0.008944867242440
16 0.017889739494535
17 0.0
18 0.000000002024639
19 0.0
20 -0.010109149575561
21 -0.010109141924692
22 0.020218291500253
23 0.0
24 0.000000002650192
25 0.0
26 -0.000325412993744
27 0.0
28 0.000371974166451
29 0.000436587295872
30 0.0
31 -0.000249527671982
32 0.000000000048991
33 0.0
34 -0.000249528041254
35 0.0
36 0.73401141797300
37 -0.091225375448383
38 -0.15716676799415
39 -0.000000000964599
40 0.0
41 -0.014617550377491
42 -0.000000001842895
43 0.0
44 -0.018464681213064
45 -0.002174414437916
46 -0.002174414439822
47 0.004348828877738
48 0.0
49 0.000000000330672
50 0.0
51 -0.24470944918411
52 0.030423777377668
53 0.052411792144694
54 0.006113486671863
55 0.0
56 0.002663817651842
57 0.009194987589147
58 0.0
59 0.007531773350755
60 -0.002219247145568
61 0.000637401136792
62 0.001581846008776
63 0.0
64 -0.000633999821556
65 0.0
66 -0.24470924625225
67 0.030423748260580
68 0.052411746764350
69 -0.003056742261041
70 -0.005294431247088
71 0.002663819433791
72 -0.004597493975026
73 -0.007963089313784
74 0.007531775256308
75 -0.000076761395890
76 -0.001505084338479
77 0.001581845734369
78 -0.001428323698888
79 0.000317000169456
80 0.000549060614561
81 -0.24470924625225
82 0.030423748260580
83 0.052411746764350
84 -0.003056742261041
85 0.005294431247088
86 0.002663819433791
87 -0.004597493975026
88 0.007963089313784
89 0.007531775256308
90 -0.000076761395890
91 -0.001505084338479
92 0.001581845734369
93 0.001428323698888
94 0.000317000169456
95 -0.000549060614561
 Sym=      4.1
 Ene=      -0.5452
 Spin= Alpha
 Occup=    2.000000
1 0.000000000066745
2 0.000000000216552
3 -0.000000000201095
4 -0.000000005083483
5 0.66148229074116
6 0.0
7 0.000000128876328
8 -0.045959605989040
9 0.0
10 -0.000000008043538
11 -0.089501539218851
12 0.0
13 -0.000000017062597
14 0.012650693582515
15 -0.012650697132666
16 0.000000003550151
17 0.0
18 -0.010346714101503
19 0.0
20 0.014300480639011
21 -0.014300485184828
22 0.000000004545816
23 0.0
24 -0.011694398621523
25 0.0
26 0.000136323263513
27 0.0
28 0.000000000080516
29 0.000060965830405
30 0.0
31 -0.000437679582190
32 -0.000243862680883
33 0.0
34 0.000437679474167
35 0.0
36 0.000000142172023
37 -0.000000017386030
38 -0.000000029900221
39 0.004828995896224
40 0.0
41 -0.000000002828428
42 0.010793984511907
43 0.0
44 -0.000000003340945
45 0.000092978180351
46 -0.000092978968172
47 0.000000000787821
48 0.0
49 -0.001988629449109
50 0.0
51 0.69199489319637
52 -0.085973348032385
53 -0.14806056346650
54 -0.012449355882871
55 0.0
56 0.006119137223488
57 -0.015209020402895
58 0.0
59 0.009206858651827
60 0.003055464690750
61 -0.002080599701720
62 -0.000974864989030
63 0.0
64 -0.002738776657623
65 0.0
66 -0.34599751882546
67 0.042986685082271
68 0.074030298750120
69 0.000510308693351
70 -0.007482267900023
71 -0.003059567862278
72 0.004296631525168
73 -0.011261595627463
74 -0.004603426660004
75 0.001639147268191
76 -0.002126580204208
77 0.000487432936017
78 -0.000456779485010
79 -0.000263342807180
80 -0.001429192103256
81 -0.34599751882546
82 0.042986685082271
83 0.074030298750120
84 0.000510308693351
85 0.007482267900023
86 -0.003059567862278
87 0.004296631525168
88 0.011261595627463
89 -0.004603426660004
90 0.001639147268191
91 -0.002126580204208
92 0.000487432936017
93 0.000456779485010
94 -0.000263342807180
95 0.001429192103256
 Sym=      1.2
 Ene=      -0.5452
 Spin= Alpha
 Occup=    2.000000
1 0.0
2 0.0
3 0.0
4 0.0
5 0.0
6 0.66148229059162
7 0.0
8 0.0
9 -0.045959604856654
10 0.0
11 0.0
12 -0.089501537809701
13 0.0
14 0.0
15 0.0
16 0.0
17 -0.014607764721632
18 0.0
19 -0.010346714051773
20 0.0
21 0.0
22 0.0
23 -0.016512775937333
24 0.0
25 -0.011694399159673
26 0.0
27 0.000136323345848
28 0.0
29 0.0
30 0.000060965649137
31 0.0
32 0.0
33 -0.000243862610079
34 0.0
35 0.000505388854625
36 0.0
37 0.0
38 0.0
39 0.0
40 0.004828995874204
41 0.0
42 0.0
43 0.010793984507864
44 0.0
45 0.0
46 0.0
47 0.0
48 -0.000107362432683
49 0.0
50 -0.001988629430037
51 0.0
52 0.0
53 0.0
54 0.0
55 0.004830198097476
56 0.0
57 0.0
58 0.010798516789519
59 0.0
60 0.0
61 0.0
62 0.0
63 -0.001910422001799
64 0.0
65 0.000561801675805
66 -0.59928519813467
67 0.074455110830963
68 0.12822422009153
69 -0.007482266880136
70 -0.008129468345882
71 -0.005299327882097
72 -0.011261594161633
73 -0.008707136399511
74 -0.007973371802323
75 -0.000026546647916
76 -0.000817711419613
77 0.000844258067529
78 -0.002701586813677
79 -0.001429192277397
80 -0.001913631991802
81 0.59928519813467
82 -0.074455110830963
83 -0.12822422009153
84 0.007482266880136
85 -0.008129468345882
86 0.005299327882097
87 0.011261594161633
88 -0.008707136399511
89 0.007973371802323
90 0.000026546647916
91 0.000817711419613
92 -0.000844258067529
93 -0.002701586813677
94 0.001429192277397
95 -0.001913631991802
 Sym=      5.1
 Ene=       0.1436
 Spin= Alpha
 Occup=    0.000000
1 -0.034328953809987
2 -0.49594423582687
3 0.019517772293763
4 -3.60131809097371
5 0.000000002399185
6 0.0
7 0.000043339314329
8 -0.000000010991516
9 0.0
10 0.000322230700756
11 -0.000000010774756
12 0.0
13 0.001237248999983
14 0.000000842285276
15 0.000000842871524
16 -0.000001685156799
17 0.0
18 0.000000000349993
19 0.0
20 0.000045335935858
21 0.000045344085439
22 -0.000090680021296
23 0.0
24 0.000000002116278
25 0.0
26 -0.014820677366142
27 0.0
28 -0.020977033514444
29 0.019884025186717
30 0.0
31 0.014071822196463
32 0.000000000051254
33 0.0
34 0.014071821546290
35 0.0
36 -0.025619777801863
37 0.25826616664033
38 1.13259961327585
39 -0.000000000058475
40 0.0
41 0.012220121445428
42 0.000000001191902
43 0.0
44 -0.16116846822850
45 -0.004656621501605
46 -0.004656621594275
47 0.009313243095880
48 0.0
49 -0.000000000169552
50 0.0
51 -0.025747541973669
52 0.25860662656914
53 1.13340864123375
54 0.011516512778376
55 0.0
56 -0.004072690052161
57 -0.15202301653124
58 0.0
59 0.053753451363311
60 0.007763886796636
61 -0.004664044399084
62 -0.003099842397553
63 0.0
64 -0.005076001517179
65 0.0
66 -0.025747539619693
67 0.25860660685766
68 1.13340862897860
69 -0.005758256528049
70 -0.009973592720719
71 -0.004072689898952
72 0.076011504021801
73 0.13165578672804
74 0.053753447165999
75 -0.001557061394868
76 0.004656903494577
77 -0.003099842099709
78 0.006213965061414
79 0.002538000460146
80 0.004395945819926
81 -0.025747539619693
82 0.25860660685766
83 1.13340862897860
84 -0.005758256528049
85 0.009973592720719
86 -0.004072689898952
87 0.076011504021801
88 -0.13165578672804
89 0.053753447165999
90 -0.001557061394868
91 0.004656903494577
92 -0.003099842099709
93 -0.006213965061414
94 0.002538000460146
95 -0.004395945819926
 Sym=      6.1
 Ene=       0.2296
 Spin= Alpha
 Occup=    0.000000
1 -0.000000754025800
2 -0.000180055148899
3 -0.000012749831224
4 0.000368241647568
5 -0.000002027069795
6 0.0
7 -0.36882774213263
8 -0.000001312561983
9 0.0
10 -0.23272536874768
11 -0.000009311964359
12 0.0
13 -1.68522192777470
14 -0.001556577897370
15 -0.001556600379960
16 0.003113178277331
17 0.0
18 -0.000000009348450
19 0.0
20 0.079564078345931
21 0.079565340225412
22 -0.15912941857134
23 0.0
24 0.000000519085472
25 0.0
26 0.001554951204048
27 0.0
28 -0.001751966348411
29 -0.002086192630597
30 0.0
31 0.001175267542624
32 0.000000006674228
33 0.0
34 0.001175241966979
35 0.0
36 0.066570772735777
37 0.22431916734078
38 3.00368458700040
39 -0.000000061111881
40 0.0
41 0.024997260206856
42 0.000000199679436
43 0.0
44 -0.25488497535310
45 -0.007390442866794
46 -0.007390469853350
47 0.014780912720145
48 0.0
49 -0.000000001998603
50 0.0
51 -0.022011582995581
52 -0.075006188891877
53 -1.00128215001391
54 -0.011330602017370
55 0.0
56 -0.007053454592514
57 0.091539812449864
58 0.0
59 0.003893852029202
60 -0.004031840937266
61 0.000182717382895
62 0.003849123554371
63 0.0
64 0.003254976723704
65 0.0
66 -0.022012099486073
67 -0.075008000805748
68 -1.00130557977470
69 0.005665341435495
70 0.009812764924691
71 -0.007053361091081
72 -0.045770687560417
73 -0.079277505274365
74 0.003893087080323
75 -0.000870892906593
76 -0.002978263626403
77 0.003849156532996
78 -0.002107358215138
79 -0.001627530019985
80 -0.002818940249473
81 -0.022012099486073
82 -0.075008000805748
83 -1.00130557977470
84 0.005665341435495
85 -0.009812764924691
86 -0.007053361091081
87 -0.045770687560417
88 0.079277505274365
89 0.003893087080323
90 -0.000870892906593
91 -0.002978263626403
92 0.003849156532996
93 0.002107358215138
94 -0.001627530019985
95 0.002818940249473
 Sym=      7.1
 Ene=       0.2296
 Spin= Alpha
 Occup=    0.000000
1 -0.000000000605511
2 -0.000000000809270
3 0.000000000008185
4 -0.000000009871933
5 -0.36887747173947
6 0.0
7 0.000002037312843
8 -0.23272422369896
9 0.0
10 0.000001259570597
11 -1.68435127909930
12 0.0
13 0.000009269885381
14 0.002201859819984
15 -0.002201841699254
16 -0.000000018120730
17 0.0
18 -0.001802398186423
19 0.0
20 -0.11261848570259
21 0.11261762160237
22 0.000000864100214
23 0.0
24 0.092165974650842
25 0.0
26 -0.000652576381698
27 0.0
28 0.000000008791795
29 -0.000291826708039
30 0.0
31 0.002098988725627
32 0.001167349798031
33 0.0
34 -0.002099000521058
35 0.0
36 -0.000000369072908
37 -0.000001202568804
38 -0.000016544162565
39 -0.011062682125476
40 0.0
41 -0.000000138464743
42 0.036186437521444
43 0.0
44 0.000001389866373
45 0.002425487196024
46 -0.002425407362250
47 -0.000000079833774
48 0.0
49 -0.000345339025239
50 0.0
51 0.062944294056976
52 0.21178748590968
53 2.83152513112441
54 0.020975632946660
55 0.0
56 -0.011340935543272
57 -0.22260441541811
58 0.0
59 0.091630736000984
60 0.011642858771973
61 -0.007777530360316
62 -0.003865328411657
63 0.0
64 -0.007393649050285
65 0.0
66 -0.031471965101076
67 -0.10589313464950
68 -1.41575429086543
69 -0.003038189925084
70 0.013864278638729
71 0.005670526026774
72 -0.028489619842984
73 -0.11207136136696
74 -0.045815401805904
75 0.002281274569153
76 -0.004213907410164
77 0.001932632841011
78 -0.004308379447431
79 -0.003738850158663
80 -0.002110068401136
81 -0.031471965101076
82 -0.10589313464950
83 -1.41575429086543
84 -0.003038189925084
85 -0.013864278638729
86 0.005670526026774
87 -0.028489619842984
88 0.11207136136696
89 -0.045815401805904
90 0.002281274569153
91 -0.004213907410164
92 0.001932632841011
93 0.004308379447431
94 -0.003738850158663
95 0.002110068401136
 Sym=      2.2
 Ene=       0.2296
 Spin= Alpha
 Occup=    0.000000
1 0.0
2 0.0
3 0.0
4 0.0
5 0.0
6 0.36887747202997
7 0.0
8 0.0
9 0.23272422464312
10 0.0
11 0.0
12 1.68435128148440
13 0.0
14 0.0
15 0.0
16 0.0
17 0.002542478497474
18 0.0
19 0.001802398202104
20 0.0
21 0.0
22 0.0
23 -0.13004012861087
24 0.0
25 -0.092165971470043
26 0.0
27 0.000652569147507
28 0.0
29 0.0
30 0.000291837503702
31 0.0
32 0.0
33 -0.001167350888008
34 0.0
35 0.002423709368200
36 0.0
37 0.0
38 0.0
39 0.0
40 0.011062682207536
41 0.0
42 0.0
43 -0.036186438716599
44 0.0
45 0.0
46 0.0
47 0.0
48 0.002800665359040
49 0.0
50 0.000345339037579
51 0.0
52 0.0
53 0.0
54 0.0
55 0.011042734601327
56 0.0
57 0.0
58 -0.036214810158113
59 0.0
60 0.0
61 0.0
62 0.0
63 0.001262551195233
64 0.0
65 0.002520601358064
66 0.054511252375921
67 0.18341299244911
68 2.45216791944655
69 -0.013864332808470
70 -0.012970994124325
71 -0.009821572107741
72 0.11207179558641
73 0.15789923222770
74 0.079354568170285
75 -0.002057448696708
76 0.005404902703949
77 -0.003347454007242
78 0.008724902823487
79 0.002110084242486
80 0.006175374366355
81 -0.054511252375921
82 -0.18341299244911
83 -2.45216791944655
84 0.013864332808470
85 -0.012970994124325
86 0.009821572107741
87 -0.11207179558641
88 0.15789923222770
89 -0.079354568170285
90 0.002057448696708
91 -0.005404902703949
92 0.003347454007242
93 0.008724902823487
94 -0.002110084242486
95 0.006175374366355
 Sym=      3.2
 Ene=       0.3642
 Spin= Alpha
 Occup=    0.000000
1 0.0
2 0.0
3 0.0
4 0.0
5 0.0
6 -0.24654551972824
7 0.0
8 0.0
9 0.71317746455281
10 0.0
11 0.0
12 2.43511435492295
13 0.0
14 0.0
15 0.0
16 0.0
17 0.001514416179318
18 0.0
19 0.001109801722481
20 0.0
21 0.0
22 0.0
23 -0.45241230537312
24 0.0
25 -0.32118548909391
26 0.0
27 0.013739301291999
28 0.0
29 0.0
30 0.006144402206470
31 0.0
32 0.0
33 -0.024577609197826
34 0.0
35 0.050365635070134
36 0.0
37 0.0
38 0.0
39 0.0
40 0.019428938555410
41 0.0
42 0.0
43 -0.044309625505544
44 0.0
45 0.0
46 0.0
47 0.0
48 0.012349830387890
49 0.0
50 0.000152566950032
51 0.0
52 0.0
53 0.0
54 0.0
55 0.019463656450498
56 0.0
57 0.0
58 -0.045225013774913
59 0.0
60 0.0
61 0.0
62 0.0
63 0.004356815587981
64 0.0
65 0.011611136375716
66 0.14635169059786
67 1.63024084458924
68 0.54360915419669
69 0.006683718121313
70 0.031040196185413
71 0.004741780455365
72 0.20542052967974
73 0.31057377933246
74 0.14518041355753
75 -0.006651680638076
76 0.016001659554353
77 -0.009349978916277
78 0.027010155962158
79 0.004326982498729
80 0.019105689852549
81 -0.14635169059786
82 -1.63024084458924
83 -0.54360915419669
84 -0.006683718121313
85 0.031040196185413
86 -0.004741780455365
87 -0.20542052967974
88 0.31057377933246
89 -0.14518041355753
90 0.006651680638076
91 -0.016001659554353
92 0.009349978916277
93 0.027010155962158
94 -0.004326982498729
95 0.019105689852549
 Sym=      8.1
 Ene=       0.3642
 Spin= Alpha
 Occup=    0.000000
1 0.000000000984568
2 0.000000003327398
3 0.000000000102827
4 0.000000010469503
5 -0.24654551721009
6 0.0
7 -0.000003904256314
8 0.71317745195855
9 0.0
10 0.000011309306492
11 2.43511434558593
12 0.0
13 0.000038523407303
14 -0.001311509236199
15 0.001311537294822
16 -0.000000028058623
17 0.0
18 0.001109802162018
19 0.0
20 0.39179615276874
21 -0.39180493350403
22 0.000008780735291
23 0.0
24 -0.32118548705159
25 0.0
26 0.013738786528744
27 0.0
28 0.000000581972289
29 0.006145091296514
30 0.0
31 -0.043618309550708
32 -0.024577607660491
33 0.0
34 0.043617528752950
35 0.0
36 -0.000002822119445
37 -0.000031597327715
38 -0.000010563784027
39 0.019428938371107
40 0.0
41 0.000000582638872
42 -0.044309624851887
43 0.0
44 0.000007742245190
45 -0.010694913865680
46 0.010695619642503
47 -0.000000705776823
48 0.0
49 0.000152567275446
50 0.0
51 -0.16899144000610
52 -1.88242943778563
53 -0.62770225335420
54 0.034898955342014
55 0.0
56 -0.005474998494777
57 0.42917072096817
58 0.0
59 -0.16763966342096
60 -0.035328970559678
61 0.024532766311607
62 0.010796204248071
63 0.0
64 0.021603689628097
65 0.0
66 0.084497127036176
67 0.94123050968379
68 0.31385641332103
69 0.023322546115343
70 0.006683792590390
71 0.002738006010193
72 0.073375909006824
73 0.20542282450812
74 0.083820180961622
75 -0.007613385993449
76 0.013011820585595
77 -0.005398434592146
78 0.013078980630731
79 0.014109412588864
80 0.004327141066362
81 0.084497127036176
82 0.94123050968379
83 0.31385641332103
84 0.023322546115343
85 -0.006683792590390
86 0.002738006010193
87 0.073375909006824
88 -0.20542282450812
89 0.083820180961622
90 -0.007613385993449
91 0.013011820585595
92 -0.005398434592146
93 -0.013078980630731
94 0.014109412588864
95 -0.004327141066362
 Sym=      9.1
 Ene=       0.3643
 Spin= Alpha
 Occup=    0.000000
1 -0.000022347608173
2 0.000008965337317
3 0.000018218322849
4 -0.001068712651719
5 0.000003886830111
6 0.0
7 -0.24652867844977
8 -0.000011231130362
9 0.0
10 0.71381355045666
11 -0.000038448913434
12 0.0
13 2.43756232172348
14 0.000938340108008
15 0.000938296538842
16 -0.001876636646851
17 0.0
18 -0.000000018397694
19 0.0
20 -0.27737776674042
21 -0.27736541576570
22 0.55474318250612
23 0.0
24 0.000005064472733
25 0.0
26 -0.032488706619012
27 0.0
28 0.036755808125816
29 0.043587786029041
30 0.0
31 -0.024655857881516
32 0.000000387871654
33 0.0
34 -0.024657233440843
35 0.0
36 -0.17914396029419
37 -1.99715088322831
38 -0.66817453764398
39 -0.000000306735908
40 0.0
41 0.036825039768334
42 0.000000697568697
43 0.0
44 0.48864623675912
45 0.022265576028293
46 0.022265238536903
47 -0.044530814565196
48 0.0
49 -0.000000001946299
50 0.0
51 0.059394310298122
52 0.66599961665819
53 0.22331113734132
54 -0.005451720903091
55 0.0
56 0.021376168512456
57 -0.16766226330418
58 0.0
59 0.014756446150951
60 0.011330113795154
61 0.002675436299724
62 -0.014005550094878
63 0.0
64 -0.011621676855607
65 0.0
66 0.059390297433069
67 0.66595507292794
68 0.22329627757781
69 0.002725216848248
70 0.004720746751143
71 0.021376038971523
72 0.083826596244102
73 0.14519068705796
74 0.014752485228063
75 0.004839376385437
76 0.009165918657939
77 -0.014005295043376
78 0.004326661413208
79 0.005810445906845
80 0.010064304898004
81 0.059390297433069
82 0.66595507292794
83 0.22329627757781
84 0.002725216848248
85 -0.004720746751143
86 0.021376038971523
87 0.083826596244102
88 -0.14519068705796
89 0.014752485228063
90 0.004839376385437
91 0.009165918657939
92 -0.014005295043376
93 -0.004326661413208
94 0.005810445906845
95 -0.010064304898004
 Sym=     10.1
 Ene=       0.6425
 Spin= Alpha
 Occup=    0.000000
1 0.069508467222227
2 -0.49144409404303
3 -0.080884450903807
4 7.54417962916858
5 -0.000000196894028
6 0.0
7 -0.002589323749887
8 0.000000254209264
9 0.0
10 0.002759557508552
11 0.000000691941732
12 0.0
13 0.008737931506697
14 -0.000105968706663
15 -0.000105988005886
16 0.000211956712548
17 0.0
18 -0.000000008182391
19 0.0
20 -0.001997711640187
21 -0.001998026504431
22 0.003995738144618
23 0.0
24 -0.000000127212803
25 0.0
26 0.060428609779086
27 0.0
28 0.085802220509739
29 -0.081073483303820
30 0.0
31 -0.057557887329755
32 -0.000000004247286
33 0.0
34 -0.057557871278367
35 0.0
36 0.28956567135089
37 -0.97244218545367
38 -1.45395726734981
39 0.000000003603116
40 0.0
41 0.001957401484948
42 -0.000000053328457
43 0.0
44 0.66791273219584
45 0.020373782915392
46 0.020373787148654
47 -0.040747570064046
48 0.0
49 0.000000002558769
50 0.0
51 0.28721676358182
52 -0.96571156491447
53 -1.44042386906412
54 0.001892414853040
55 0.0
56 -0.000621660433345
57 0.62452044779909
58 0.0
59 -0.22166111222446
60 -0.033673256491036
61 0.020263276548782
62 0.013409979942253
63 0.0
64 0.022039192348823
65 0.0
66 0.28721658930058
67 -0.96571108880532
68 -1.44042286953460
69 -0.000946205409121
70 -0.001638881983586
71 -0.000621663398180
72 -0.31226008742536
73 -0.54085025190174
74 -0.22166095839398
75 0.006779136602255
76 -0.020189110358315
77 0.013409973756060
78 -0.026968252455553
79 -0.011019588642619
80 -0.019086489747853
81 0.28721658930058
82 -0.96571108880532
83 -1.44042286953460
84 -0.000946205409121
85 0.001638881983586
86 -0.000621663398180
87 -0.31226008742536
88 0.54085025190174
89 -0.22166095839398
90 0.006779136602255
91 -0.020189110358315
92 0.013409973756060
93 0.026968252455553
94 -0.011019588642619
95 0.019086489747853
 Sym=      4.2
 Ene=       0.6484
 Spin= Alpha
 Occup=    0.000000
1 0.0
2 0.0
3 0.0
4 0.0
5 0.0
6 -0.83075177100025
7 0.0
8 0.0
9 0.98158621061271
10 0.0
11 0.0
12 2.96154829099941
13 0.0
14 0.0
15 0.0
16 0.0
17 -0.044114778464340
18 0.0
19 -0.031203983130835
20 0.0
21 0.0
22 0.0
23 -0.74848947884769
24 0.0
25 -0.53054379777088
26 0.0
27 0.010151314027926
28 0.0
29 0.0
30 0.004539805325967
31 0.0
32 0.0
33 -0.018159222262400
34 0.0
35 0.037299879303497
36 0.0
37 0.0
38 0.0
39 0.0
40 0.014968615774909
41 0.0
42 0.0
43 -0.21237950662486
44 0.0
45 0.0
46 0.0
47 0.0
48 0.010158026726339
49 0.0
50 0.009205794224193
51 0.0
52 0.0
53 0.0
54 0.0
55 0.015012575053486
56 0.0
57 0.0
58 -0.21347533733766
59 0.0
60 0.0
61 0.0
62 0.0
63 0.012128663545111
64 0.0
65 0.006513788894903
66 -0.42192037833599
67 1.09482248436539
68 2.47307885565198
69 -0.008459478898043
70 0.000360328154675
71 -0.005955577365793
72 0.50152739553226
73 0.65519559010754
74 0.35453596500133
75 -0.006309786016633
76 0.019947560424202
77 -0.013637774407569
78 0.038386010297458
79 0.011921787113520
80 0.027162929801027
81 0.42192037833599
82 -1.09482248436539
83 -2.47307885565198
84 0.008459478898043
85 0.000360328154675
86 0.005955577365793
87 -0.50152739553226
88 0.65519559010754
89 -0.35453596500133
90 0.006309786016633
91 -0.019947560424202
92 0.013637774407569
93 0.038386010297458
94 -0.011921787113520
95 0.027162929801027
 Sym=     11.1
 Ene=       0.6484
 Spin= Alpha
 Occup=    0.000000
1 -0.000000019476558
2 0.000000147653727
3 0.000000026394386
4 -0.000002298477732
5 -0.83075177121213
6 0.0
7 -0.000015609373635
8 0.98158619640309
9 0.0
10 0.000018479621690
11 2.96154828537970
12 0.0
13 0.000055655393820
14 0.038204010690264
15 -0.038205026697805
16 0.000001016007541
17 0.0
18 -0.031203982608066
19 0.0
20 0.64820227994726
21 -0.64821951469282
22 0.000017234745556