[Molden Format]
[Atoms] Angs
H     1    1         0.0000000000        0.0000000000        0.0000000000
[GTO]
   1 0
 s    5  1.00
  0.3387000000D+02  0.6067999217D-02
  0.5095000000D+01  0.4530799416D-01
  0.1159000000D+01  0.2028219738D+00
  0.3258000000D+00  0.5039029350D+00
  0.1027000000D+00  0.3834209505D+00
 s    5  1.00
  0.3387000000D+02  0.0000000000D+00
  0.5095000000D+01  0.0000000000D+00
  0.1159000000D+01  0.0000000000D+00
  0.3258000000D+00  0.1000000000D+01
  0.1027000000D+00  0.0000000000D+00
 s    5  1.00
  0.3387000000D+02  0.0000000000D+00
  0.5095000000D+01  0.0000000000D+00
  0.1159000000D+01  0.0000000000D+00
  0.3258000000D+00  0.0000000000D+00
  0.1027000000D+00  0.1000000000D+01
 p    1  1.00
  0.1407000000D+01  0.1000000000D+01
 p    1  1.00
  0.3880000000D+00  0.1000000000D+01
 d    1  1.00
  0.1057000000D+01  0.1000000000D+01


[MO]
 Sym=      1.1
 Ene=      -0.4998
 Spin= Alpha
 Occup=    1.000000
1 0.99999709959429
2 0.000002315807156
3 0.000000740024301
4 0.0
5 0.0
6 0.0
7 0.0
8 0.0
9 0.0
10 0.0
11 0.0
12 0.0
13 0.0
14 0.0
15 0.0
 Sym=      2.1
 Ene=       0.3488
 Spin= Alpha
 Occup=    0.000000
1 -0.40132463516837
2 -1.11581102168966
3 1.71141136054438
4 0.0
5 0.0
6 0.0
7 0.0
8 0.0
9 0.0
10 0.0
11 0.0
12 0.0
13 0.0
14 0.0
15 0.0
 Sym=      1.2
 Ene=       0.7375
 Spin= Alpha
 Occup=    0.000000
1 0.0
2 0.0
3 0.0
4 -0.093232626481216
5 0.0
6 0.0
7 1.05462453360822
8 0.0
9 0.0
10 0.0
11 0.0
12 0.0
13 0.0
14 0.0
15 0.0
 Sym=      1.3
 Ene=       0.7375
 Spin= Alpha
 Occup=    0.000000
1 0.0
2 0.0
3 0.0
4 0.0
5 -0.093232626481216
6 0.0
7 0.0
8 1.05462453360822
9 0.0
10 0.0
11 0.0
12 0.0
13 0.0
14 0.0
15 0.0
 Sym=      1.5
 Ene=       0.7375
 Spin= Alpha
 Occup=    0.000000
1 0.0
2 0.0
3 0.0
4 0.0
5 0.0
6 -0.093232626481216
7 0.0
8 0.0
9 1.05462453360822
10 0.0
11 0.0
12 0.0
13 0.0
14 0.0
15 0.0
 Sym=      3.1
 Ene=       2.4697
 Spin= Alpha
 Occup=    0.000000
1 6.45754396175564
2 -5.13565770185240
3 -1.67037453914200
4 0.0
5 0.0
6 0.0
7 0.0
8 0.0
9 0.0
10 0.0
11 0.0
12 0.0
13 0.0
14 0.0
15 0.0
 Sym=      1.4
 Ene=       3.4299
 Spin= Alpha
 Occup=    0.000000
1 0.0
2 0.0
3 0.0
4 0.0
5 0.0
6 0.0
7 0.0
8 0.0
9 0.0
10 0.0
11 0.0
12 0.0
13 1.00000000000000
14 0.0
15 0.0
 Sym=      1.6
 Ene=       3.4299
 Spin= Alpha
 Occup=    0.000000
1 0.0
2 0.0
3 0.0
4 0.0
5 0.0
6 0.0
7 0.0
8 0.0
9 0.0
10 0.0
11 0.0
12 0.0
13 0.0
14 1.00000000000000
15 0.0
 Sym=      1.7
 Ene=       3.4299
 Spin= Alpha
 Occup=    0.000000
1 0.0
2 0.0
3 0.0
4 0.0
5 0.0
6 0.0
7 0.0
8 0.0
9 0.0
10 0.0
11 0.0
12 0.0
13 0.0
14 0.0
15 1.00000000000000
 Sym=      4.1
 Ene=       3.4299
 Spin= Alpha
 Occup=    0.000000
1 0.0
2 0.0
3 0.0
4 0.0
5 0.0
6 0.0
7 0.0
8 0.0
9 0.0
10 0.86602540378444
11 -0.86602540378444
12 0.0
13 0.0
14 0.0
15 0.0
 Sym=      5.1
 Ene=       3.4299
 Spin= Alpha
 Occup=    0.000000
1 0.0
2 0.0
3 0.0
4 0.0
5 0.0
6 0.0
7 0.0
8 0.0
9 0.0
10 -0.50000000000000
11 -0.50000000000000
12 1.00000000000000
13 0.0
14 0.0
15 0.0
 Sym=      2.2
 Ene=       3.8460
 Spin= Alpha
 Occup=    0.000000
1 0.0
2 0.0
3 0.0
4 1.26465938753053
5 0.0
6 0.0
7 -0.70414684705772
8 0.0
9 0.0
10 0.0
11 0.0
12 0.0
13 0.0
14 0.0
15 0.0
 Sym=      2.3
 Ene=       3.8460
 Spin= Alpha
 Occup=    0.000000
1 0.0
2 0.0
3 0.0
4 0.0
5 1.26465938753053
6 0.0
7 0.0
8 -0.70414684705772
9 0.0
10 0.0
11 0.0
12 0.0
13 0.0
14 0.0
15 0.0
 Sym=      2.5
 Ene=       3.8460
 Spin= Alpha
 Occup=    0.000000
1 0.0
2 0.0
3 0.0
4 0.0
5 0.0
6 1.26465938753053
7 0.0
8 0.0
9 -0.70414684705772
10 0.0
11 0.0
12 0.0
13 0.0
14 0.0
15 0.0
